begin
comment bulk 300K-bcc1-111-1000  frame 0
lattice     5.567910     0.000000     0.000000
lattice     0.000000     5.567910     0.000000
lattice     0.000000     0.000000     5.212196
atom     0.000000     0.000000     0.000000  Cu     0.000000     0.000000     0.000000     0.000000    -0.000000
atom     2.783963     2.783963     2.606102  Cu     0.000000     0.000000     0.000000    -0.000000    -0.000000
energy  -0.27840011389044694
charge  0.0
end